<?xml version="1.0"?>
<VTKFile type="UnstructuredGrid" version= "0.1" byte_order="LittleEndian" compressor="vtkZLibDataCompressor">
  <UnstructuredGrid>
    <Piece NumberOfPoints="163" NumberOfCells="629">
      <PointData Tensors="Metrique">
        <DataArray type="Float32" Name="Metrique" NumberOfComponents="9" format="ascii">
            
            68.7761 21.0149 68.7761 21.0149 21.0149 21.0149 68.7761 21.0149 68.7761 
            8.06995 0.611608 3.74573 0.611608 0.611608 -1.62468 3.74573 -1.62468 3.74573 
            3.74573 0.611608 8.06995 0.611608 -1.62468 0.611608 8.06995 0.611608 3.74573 
            6 4 6 4 2 2 6 2 4 
            6 2 4 2 4 2 4 2 6 
            3.94351 -1.99217 4.0375 -1.99217 5.24314 1.65682 4.0375 1.65682 17.2529 
            3.27273 -0.909091 3.27273 -0.909091 -0.909091 -0.909091 3.27273 -0.909091 3.27273 
            4 2 6 2 2 4 6 4 6 
            5.26457 1.21736 5.06629 1.21736 1.01006 1.13322 5.06629 1.13322 5.02065 
            7.39507 -5.65407 15.3313 -5.65407 -2.86887 6.15318 15.3313 6.15318 14.7572 
            43.9859 14.6431 58.3463 14.6431 -6.33216 14.6431 58.3463 14.6431 43.9859 
            2.74397 -0.0381504 2.54417 -0.0381504 -0.139266 -0.360059 2.54417 -0.360059 5.27047 
            5.38176 -0.167537 2.63301 -0.167537 -0.167537 -0.0384442 2.63301 -0.0384442 2.63301 
            2.63301 -0.167537 5.38176 -0.167537 -0.0384442 -0.167537 5.38176 -0.167537 2.63301 
            58.3463 14.6431 43.9859 14.6431 14.6431 -6.33216 43.9859 -6.33216 43.9859 
            19.5761 -2.41758 19.5761 -2.41758 1.19303 1.19303 19.5761 1.19303 42.2618 
            21.3998 -7.81206 13.7016 -7.81206 3.93741 -1.08292 13.7016 -1.08292 16.9145 
            79.1834 -45.2855 79.1834 -45.2855 -10.9462 -10.9462 79.1834 -10.9462 75.5641 
            12.0833 1.9488 12.0833 1.9488 -2.87852 -2.87852 12.0833 -2.87852 2.9861 
            59.871 -21.6774 59.871 -21.6774 -21.6774 -21.6774 59.871 -21.6774 59.871 
            59.871 -21.6774 59.871 -21.6774 -21.6774 -21.6774 59.871 -21.6774 59.871 
            62.6328 5.68492 53.9794 5.68492 -22.9104 -17.6055 53.9794 -17.6055 57.3527 
            83.1205 -9.24823 63.4567 -9.24823 0.262446 3.51188 63.4567 3.51188 43.8889 
            57.3527 -22.9104 62.6328 -22.9104 -17.6055 5.68492 62.6328 5.68492 53.9794 
            62.6328 -22.9104 57.3527 -22.9104 5.68492 -17.6055 57.3527 -17.6055 53.9794 
            59.871 -21.6774 59.871 -21.6774 -21.6774 -21.6774 59.871 -21.6774 59.871 
            62.7573 -25.4757 62.7573 -25.4757 -22.3689 -22.3689 62.7573 -22.3689 57.1651 
            68.646 29.551 73.0056 29.551 -30.5901 -36.7899 73.0056 -36.7899 67.2887 
            4.06177 3.73488 4.78392 3.73488 -7.83018 -8.78605 4.78392 -8.78605 36.9001 
            25.8563 4.03889 25.8563 4.03889 -6.43708 -6.43708 25.8563 -6.43708 37.1207 
            33.0323 -16.2581 37.1613 -16.2581 10.8387 -16.2581 37.1613 -16.2581 33.0323 
            37.1613 -16.2581 33.0323 -16.2581 -16.2581 10.8387 33.0323 10.8387 33.0323 
            37.2485 2.0695 13.4798 2.0695 -8.32261 0.533643 13.4798 0.533643 3.86657 
            13.4798 2.0695 37.2485 2.0695 0.533643 -8.32261 37.2485 -8.32261 3.86657 
            81.9113 2.58297 73.8849 2.58297 2.58297 -37.822 73.8849 -37.822 73.8849 
            23.9937 2.7827 11.8771 2.7827 -1.30445 2.7827 11.8771 2.7827 23.9937 
            11.8771 2.7827 23.9937 2.7827 2.7827 -1.30445 23.9937 -1.30445 23.9937 
            0.6667 -0.3333 0.6667 -0.3333 -0.3333 -0.3333 0.6667 -0.3333 0.6667 
            75.6364 -26.1818 40.7273 -26.1818 -26.1818 -2.90909 40.7273 -2.90909 40.7273 
            40.7273 -26.1818 75.6364 -26.1818 -2.90909 -26.1818 75.6364 -26.1818 40.7273 
            0.6667 -0.3333 0.6667 -0.3333 -0.3333 -0.3333 0.6667 -0.3333 0.6667 
            40.7273 -2.90909 40.7273 -2.90909 -26.1818 -26.1818 40.7273 -26.1818 75.6364 
            40.7273 -2.90909 40.7273 -2.90909 -26.1818 -26.1818 40.7273 -26.1818 75.6364 
            53.0383 -5.5762 17.6988 -5.5762 8.80171 -8.64002 17.6988 -8.64002 16.766 
            17.695 2.56978 47.0172 2.56978 -5.4466 1.41088 47.0172 1.41088 5.70527 
            17.6988 -5.5762 53.0383 -5.5762 -8.64002 8.80171 53.0383 8.80171 16.766 
            39.1052 -2.56119 17.4785 -2.56119 -4.15022 -6.24187 17.4785 -6.24187 6.3084 
            53.0383 8.80171 16.766 8.80171 -5.5762 -8.64002 16.766 -8.64002 17.6988 
            16.766 8.80171 53.0383 8.80171 -8.64002 -5.5762 53.0383 -5.5762 17.6988 
            21.2 -1.2 16 -1.2 10.8 -1.2 16 -1.2 21.2 
            16 -1.2 21.2 -1.2 -1.2 10.8 21.2 10.8 21.2 
            64 32 64 32 6.4 6.4 64 6.4 25.6 
            69.4123 3.18289 58.0143 3.18289 -3.28381 1.22903 58.0143 1.22903 9.2286 
            46.1203 -1.03122 76.2165 -1.03122 -0.195811 20.0808 76.2165 20.0808 33.478 
            70.1119 49.9808 47.8982 49.9808 0 0 47.8982 0 38.4 
            38.4 0 47.8982 0 0 49.9808 47.8982 49.9808 70.1119 
            47.8982 49.9808 70.1119 49.9808 0 0 70.1119 0 38.4 
            47.8982 0 38.4 0 49.9808 0 38.4 0 70.1119 
            0.250948 0.263201 16.6626 0.263201 0.0458871 -15.6215 16.6626 -15.6215 15.9055 
            16.6626 0.263201 0.250948 0.263201 -15.6215 0.0458871 0.250948 0.0458871 15.9055 
            0.510686 -0.0410045 16.201 -0.0410045 0.115789 -15.9979 16.201 -15.9979 16.477 
            16.201 -0.0410045 0.510686 -0.0410045 -15.9979 0.115789 0.510686 0.115789 16.477 
            41.0921 -8.74207 5.42373 -8.74207 -4.34884 -2.54915 5.42373 -2.54915 14.2102 
            21.2207 -2.91176 29.3638 -2.91176 4.23548 -6.05682 29.3638 -6.05682 26.3837 
            25.9027 -4.50797 21.5768 -4.50797 -3.9076 -4.50797 21.5768 -4.50797 25.9027 
            21.5768 -4.50797 25.9027 -4.50797 -4.50797 -3.9076 25.9027 -3.9076 25.9027 
            18.2284 2.7427 21.1522 2.7427 -0.0482346 -0.803565 21.1522 -0.803565 38.5764 
            180.481 -3.26334 76.8245 -3.26334 -50.0379 -3.91601 76.8245 -3.91601 76.5797 
            76.8245 -3.26334 180.481 -3.26334 -3.91601 -50.0379 180.481 -50.0379 76.5797 
            180.481 -50.0379 76.5797 -50.0379 -3.26334 -3.91601 76.5797 -3.91601 76.8245 
            28.7776 0.59057 28.7776 0.59057 -0.314435 -0.314435 28.7776 -0.314435 22.6951 
            31.5586 -0.872867 29.8382 -0.872867 2.05317 -0.371068 29.8382 -0.371068 14.3429 
            26.4462 -0.417136 26.2316 -0.417136 -0.489447 0.79873 26.2316 0.79873 27.4015 
            80.5472 -1.84129 57.8097 -1.84129 8.6568 -25.3994 57.8097 -25.3994 68.7681 
            68.7681 8.6568 80.5472 8.6568 -25.3994 -1.84129 80.5472 -1.84129 57.8097 
            80.5472 8.6568 68.7681 8.6568 -1.84129 -25.3994 68.7681 -25.3994 57.8097 
            77.3851 -1.57257 67.072 -1.57257 6.32686 -26.9531 67.072 -26.9531 61.1474 
            77.3851 6.32686 61.1474 6.32686 -1.57257 -26.9531 61.1474 -26.9531 67.072 
            0.6667 -0.3333 0.6667 -0.3333 0.3333 0.3333 0.6667 0.3333 0.6667 
            0.6667 -0.3333 0.6667 -0.3333 0.3333 0.3333 0.6667 0.3333 0.6667 
            67.072 -1.57257 77.3851 -1.57257 -26.9531 6.32686 77.3851 6.32686 61.1474 
            68.4683 -1.77636e-15 67.5041 -1.77636e-15 7.2906 8.8789 67.5041 8.8789 64.7758 
            0.6667 0.3333 0.6667 0.3333 -0.3333 0.3333 0.6667 0.3333 0.6667 
            56 48 56 48 -16 -16 56 -16 48 
            64 0 117.333 0 0 -21.3333 117.333 -21.3333 117.333 
            117.333 0 64 0 -21.3333 0 64 0 117.333 
            4.32373 0.160498 3.72506 0.160498 -3.1607 0.959333 3.72506 0.959333 3.34958 
            7.33333 -1.33333 7.33333 -1.33333 0 0 7.33333 0 4 
            7.33333 0 4 0 -1.33333 0 4 0 7.33333 
            3.70827 -1.31227 4 -1.31227 1.69854 2.62938 4 2.62938 3.80551 
            3.6933 -1.58562 6.07342 -1.58562 1.33842 -3.3999 6.07342 -3.3999 5.28252 
            4 -1.31227 3.70827 -1.31227 2.62938 1.69854 3.70827 1.69854 3.80551 
            4 0 7.33333 0 0 -1.33333 7.33333 -1.33333 7.33333 
            3.80551 1.69854 3.70827 1.69854 2.62938 -1.31227 3.70827 -1.31227 4 
            3.70827 1.69854 3.80551 1.69854 -1.31227 2.62938 3.80551 2.62938 4 
            4.98613 -0.0335703 4.51825 -0.0335703 -0.906142 -0.643439 4.51825 -0.643439 4.17144 
            4.51358 -0.232835 4.79049 -0.232835 -0.669899 -0.891567 4.79049 -0.891567 4.23387 
            5.01089 -0.207687 5.01089 -0.207687 0.0588447 0.0588447 5.01089 0.0588447 4.39288 
            61.3316 0 75.5429 0 -6.49976 0 75.5429 0 72.954 
            75.5429 0 61.3316 0 0 -6.49976 61.3316 -6.49976 72.954 
            75.5429 0 72.954 0 0 -6.49976 72.954 -6.49976 61.3316 
            76.8 0 64 0 0 -25.6 64 -25.6 64 
            64 5.33333 42.6667 5.33333 5.33333 3.55271e-15 42.6667 3.55271e-15 42.6667 
            73.1429 0 73.1429 0 0 0 73.1429 0 73.1429 
            73.1429 0 73.1429 0 0 0 73.1429 0 73.1429 
            73.1429 0 73.1429 0 0 0 73.1429 0 73.1429 
            42.6667 5.33333 64 5.33333 3.55271e-15 5.33333 64 5.33333 42.6667 
            64 0 76.8 0 -25.6 0 76.8 0 64 
            42.6667 -1.77636e-15 42.6667 -1.77636e-15 5.33333 5.33333 42.6667 5.33333 64 
            64 -25.6 64 -25.6 0 0 64 0 76.8 
            128 0 128 0 0 0 128 0 256 
            166.4 0 256 0 0 0 256 0 89.6 
            73.1429 0 73.1429 0 0 0 73.1429 0 73.1429 
            256 0 128 0 0 0 128 0 128 
            5.46491 0.368133 4.63935 0.368133 1.05082 0.759001 4.63935 0.759001 5.54284 
            4.63935 0.368133 5.46491 0.368133 0.759001 1.05082 5.46491 1.05082 5.54284 
            4.57143 0 4.57143 0 0 0 4.57143 0 4.57143 
            10.4218 -7.31071 8.5448 -7.31071 1.37988 -1.90866 8.5448 -1.90866 6.24794 
            6.93344 -2.97572 6.77095 -2.97572 0.059648 -0.689811 6.77095 -0.689811 8.25717 
            19.2582 3.44735 19.184 3.44735 11.9183 -4.66647 19.184 -4.66647 14.4918 
            18.6197 6.09661 17.9613 6.09661 -6.40494 10.8726 17.9613 10.8726 15.3722 
            26.6661 -5.56693 26.6661 -5.56693 3.99319 3.99319 26.6661 3.99319 11.5585 
            70.0417 7.91044 40.3776 7.91044 -49.0345 -12.2586 40.3776 -12.2586 88.3642 
            70.0417 -49.0345 88.3642 -49.0345 7.91044 -12.2586 88.3642 -12.2586 40.3776 
            88.3642 -49.0345 70.0417 -49.0345 -12.2586 7.91044 70.0417 7.91044 40.3776 
            40.3776 7.91044 70.0417 7.91044 -12.2586 -49.0345 70.0417 -49.0345 88.3642 
            40.3776 -12.2586 88.3642 -12.2586 7.91044 -49.0345 88.3642 -49.0345 70.0417 
            88.3642 -12.2586 40.3776 -12.2586 -49.0345 7.91044 40.3776 7.91044 70.0417 
            32 3.01981e-14 32 3.01981e-14 0 0 32 0 64 
            32 -8.28967e-15 87.3333 -8.28967e-15 2.0132e-14 -60.6667 87.3333 -60.6667 87.3333 
            87.3333 0 32 0 -60.6667 0 32 0 87.3333 
            54.7609 -15.8384 21.1179 -15.8384 -9.88545 10.987 21.1179 10.987 53.4767 
            49.3443 -48.1536 48.0923 -48.1536 -0.534775 0.53448 48.0923 0.53448 25.9016 
            48.0923 -48.1536 49.3443 -48.1536 0.53448 -0.534775 49.3443 -0.534775 25.9016 
            41.3246 9.40229 62.4396 9.40229 -4.42643 -0.496703 62.4396 -0.496703 24.0189 
            62.4396 9.40229 41.3246 9.40229 -0.496703 -4.42643 41.3246 -4.42643 24.0189 
            221.659 0 181.073 0 12.4878 0 181.073 0 124.878 
            221.659 12.4878 124.878 12.4878 0 0 124.878 0 181.073 
            73.1429 0 73.1429 0 0 0 73.1429 0 73.1429 
            73.1429 0 73.1429 0 0 0 73.1429 0 73.1429 
            73.1429 0 73.1429 0 0 0 73.1429 0 73.1429 
            73.1429 0 73.1429 0 0 0 73.1429 0 73.1429 
            73.1429 0 73.1429 0 0 0 73.1429 0 73.1429 
            73.1429 0 73.1429 0 0 0 73.1429 0 73.1429 
            107.817 -10.0913 107.817 -10.0913 -2.12448 -2.12448 107.817 -2.12448 86.0415 
            73.1429 0 73.1429 0 0 0 73.1429 0 73.1429 
            73.1429 0 73.1429 0 0 0 73.1429 0 73.1429 
            181.073 -1.10914e-14 221.659 -1.10914e-14 -8.31855e-15 12.4878 221.659 12.4878 124.878 
            154.167 -49.7589 65.5735 -49.7589 0 0 65.5735 0 54.389 
            154.167 0 54.389 0 -49.7589 0 54.389 0 65.5735 
            54.389 0 154.167 0 0 -49.7589 154.167 -49.7589 65.5735 
            21.1179 10.987 53.4767 10.987 -15.8384 -9.88545 53.4767 -9.88545 54.7609 
            53.4767 10.987 21.1179 10.987 -9.88545 -15.8384 21.1179 -15.8384 54.7609 
            72.0764 -3.42438 72.0764 -3.42438 -2.73951 -2.73951 72.0764 -2.73951 72.6928 
            21.1179 -15.8384 54.7609 -15.8384 10.987 -9.88545 54.7609 -9.88545 53.4767 
            113.723 -1.31177e-15 70.8923 -1.31177e-15 -5.41538 -8.74514e-16 70.8923 -8.74514e-16 113.723 
            70.8923 4.37257e-16 113.723 4.37257e-16 6.55886e-16 -5.41538 113.723 -5.41538 113.723 
            29.394 -2.80763 29.394 -2.80763 4.66043 4.66043 29.394 4.66043 54.9106 
            17.0003 0.574456 45.2174 0.574456 -9.21746 16.6293 45.2174 16.6293 50.5919 
            23.8933 8.487 25.0437 8.487 12.9583 13.1088 25.0437 13.1088 36.4022 
            181.935 0 55.9799 0 -40.573 0 55.9799 0 81.1459 
            181.935 -40.573 81.1459 -40.573 0 0 81.1459 0 55.9799 
            55.9799 0 181.935 0 0 -40.573 181.935 -40.573 81.1459 
        </DataArray>
      </PointData>
      <CellData/>
      <Points>
        <DataArray type="Float32" NumberOfComponents="3" format="ascii">
            
            0 0 0 
            1 0 0 
            0 1 0 
            1 1 0 
            1 0 1 
            0 0 1 
            1 1 1 
            0 1 1 
            0.5 0.5 0.5 
            0 0.5 0.5 
            0 0.5 0 
            0.5 0.5 1 
            1 0.5 0.5 
            0.5 1 0.5 
            0.5 0 0 
            0.25 0.25 0.25 
            0.5 0 0.5 
            0 0 0.5 
            0.5 0.5 0 
            0.25 0.25 0 
            0.25 0 0.25 
            0 0 0.25 
            0.125 0.125 0.125 
            0.25 0 0 
            0 0.25 0 
            0 0.25 0.25 
            0.125 0.125 0 
            0.125 0 0.125 
            0.25 0.25 0.5 
            0.125 0.125 0.375 
            0.125 0.375 0.125 
            0.375 0.125 0.125 
            0.5 0.25 0.25 
            0.25 0.5 0.25 
            0 0.125 0.125 
            0.125 0.75 0.125 
            0.75 0.125 0.125 
            0 0.125 0.375 
            0 0.375 0.125 
            0.375 0 0.125 
            0.125 0 0.375 
            0.125 0.375 0 
            0.375 0.125 0 
            0.5 0.25 0 
            0.25 0 0.5 
            0.25 0.5 0 
            0 0.25 0.5 
            0.5 0 0.25 
            0 0.5 0.25 
            0 0.75 0 
            0.75 0 0 
            0 0 0.75 
            0.25 0.125 0.375 
            0.125 0.25 0.375 
            0.25 0.375 0.125 
            0.125 0.375 0.25 
            0.375 0.25 0.125 
            0.375 0.125 0.25 
            0.625 0.25 0 
            0.25 0.625 0 
            0.625 0 0.25 
            0 0.625 0.25 
            0 0.125 0.75 
            0.125 0 0.75 
            0.125 0.5 0.125 
            0.5 0.125 0.125 
            0.125 0.125 0.625 
            0 0.125 0 
            0.125 0 0 
            0 0 0.125 
            0.375 0.375 0.125 
            0.375 0.125 0.375 
            0.125 0.375 0.375 
            0.125 0.125 0.25 
            0.25 0.125 0.125 
            0.125 0.25 0.125 
            0 0.25 0.125 
            0 0.125 0.25 
            0.125 0.25 0 
            0.25 0.125 0 
            0.25 0 0.125 
            0.0625 0.0625 0.0625 
            0.125 0 0.25 
            0 0 0.375 
            0.375 0 0 
            0 0.375 0 
            0 0.5 1 
            1 1 0.5 
            1 0.5 1 
            1 0 0.5 
            0.5 0 1 
            0 1 0.5 
            0.5 1 1 
            0.5 1 0 
            1 0.5 0 
            0.75 0.25 0.75 
            0.25 0.75 0.75 
            0.75 0.75 0.25 
            0.3125 0.0625 0.0625 
            0.0625 0.3125 0.0625 
            0.0625 0.0625 0.3125 
            0.125 0.25 0.25 
            0 0.375 0.375 
            0.0625 0.1875 0.1875 
            0.1875 0.0625 0.1875 
            0.1875 0.1875 0.0625 
            0.375 0 0.375 
            0.25 0.125 0.25 
            0.375 0.375 0 
            0.25 0.25 0.125 
            0.0625 0.0625 0 
            0.0625 0 0.0625 
            0.1875 0.1875 0.1875 
            0 0.0625 0.0625 
            0.28125 0.6875 0.28125 
            0.6875 0.28125 0.28125 
            0.75 0.75 0.75 
            0.34375 0.09375 0.65625 
            0.171875 0.296875 0.703125 
            0.3125 0.4375 0.4375 
            0.4375 0.3125 0.4375 
            0.40625 0.40625 0.34375 
            0 0.25 0.375 
            0 0.375 0.25 
            0.375 0 0.25 
            0.25 0 0.375 
            0.25 0.375 0 
            0.375 0.25 0 
            0 0 0.625 
            0.625 0 0 
            0 0.625 0 
            0 0.53125 0.125 
            0 0.125 0.5 
            0.125 0 0.5 
            0.25 0.375 0.25 
            0.375 0.25 0.25 
            0 0.1875 0.0625 
            0 0.0625 0.1875 
            0.3125 0.1875 0.1875 
            0.3125 0.0625 0.1875 
            0.3125 0.1875 0.0625 
            0.1875 0.3125 0.1875 
            0.0625 0.3125 0.1875 
            0.1875 0.3125 0.0625 
            0.0625 0.0625 0.4375 
            0.0625 0.1875 0.3125 
            0.1875 0.0625 0.3125 
            0.1875 0 0.0625 
            0.0625 0 0.1875 
            0.0625 0.1875 0 
            0.1875 0.0625 0 
            0.53125 0.125 0 
            0.125 0.53125 0 
            0.1875 0.1875 0.3125 
            0.53125 0 0.125 
            0.0625 0.4375 0.0625 
            0.4375 0.0625 0.0625 
            0.265625 0.265625 0.375 
            0.140625 0.140625 0.5 
            0.148438 0.273438 0.539062 
            0.0625 0.1875 0.09375 
            0.0625 0.09375 0.1875 
            0.1875 0.0625 0.09375 
        </DataArray>
      </Points>
      <Cells>
        <DataArray type="Int32" Name="connectivity" format="ascii">
            
            148 69 21 137 79 26 105 19 26 105 
            19 78 32 43 65 31 32 65 47 31 
            33 64 45 30 21 37 100 77 99 24 
            76 38 133 40 29 44 132 29 37 46 
            30 33 64 48 44 29 125 40 48 30 
            123 38 37 46 29 122 20 57 124 139 
            57 32 47 31 140 19 56 127 31 56 
            32 43 30 123 55 48 30 55 33 48 
            19 54 126 143 54 33 45 30 122 53 
            46 29 29 125 52 44 153 107 15 52 
            153 15 157 52 25 101 53 145 15 157 
            53 153 134 33 54 30 142 25 101 55 
            30 134 33 55 31 135 32 56 135 32 
            57 31 64 10 152 155 65 151 14 156 
            65 14 154 156 109 15 56 70 135 32 
            56 70 70 109 15 54 70 134 33 54 
            8 120 28 121 32 121 120 8 71 107 
            15 57 71 135 32 57 107 15 52 71 
            121 8 119 28 33 119 121 8 25 101 
            55 72 134 33 55 72 72 25 101 53 
            32 70 135 121 33 134 70 121 106 124 
            20 71 124 20 71 57 16 47 71 32 
            47 71 32 57 56 127 19 70 127 19 
            70 108 56 43 70 32 43 70 32 18 
            55 48 123 72 48 123 72 102 55 48 
            72 33 48 72 33 9 108 126 19 70 
            126 19 70 54 18 45 70 33 45 70 
            33 54 102 46 122 72 46 122 72 53 
            52 44 125 71 44 125 71 106 5 62 
            63 51 47 65 32 60 47 16 60 32 
            62 118 66 46 45 64 33 59 45 18 
            59 33 44 63 117 66 65 32 58 43 
            18 58 32 43 151 129 65 14 129 154 
            65 14 10 152 130 64 10 130 131 64 
            99 78 24 41 149 67 136 24 98 23 
            79 42 68 150 147 23 98 80 23 39 
            81 0 69 113 81 0 113 67 69 0 
            81 111 0 81 111 68 68 0 81 110 
            0 81 110 67 40 21 100 82 83 21 
            100 40 21 83 100 37 98 39 23 84 
            98 23 42 84 99 41 24 85 99 24 
            38 85 82 27 104 20 104 27 80 20 
            22 81 27 148 22 150 81 26 149 81 
            26 22 11 7 96 86 7 96 86 91 
            11 95 4 90 95 4 90 89 97 3 
            94 93 101 15 55 72 72 101 15 53 
            101 15 53 153 48 102 72 9 9 46 
            102 72 103 34 77 25 103 34 25 76 
            16 47 106 71 44 106 71 16 146 20 
            107 52 20 107 57 139 71 20 107 57 
            20 107 52 71 43 108 70 18 18 45 
            108 70 19 109 54 143 140 19 109 56 
            19 109 56 70 70 19 109 54 111 81 
            27 68 112 105 22 75 112 104 22 74 
            112 22 105 74 73 104 22 112 81 113 
            69 34 81 113 34 67 105 109 75 112 
            105 109 112 74 104 107 74 112 104 107 
            112 73 101 73 103 112 73 103 112 22 
            101 103 75 112 103 75 112 22 22 27 
            162 104 27 162 104 80 22 162 74 104 
            162 74 104 80 161 73 148 22 22 149 
            160 75 75 99 78 149 99 78 149 24 
            23 98 79 150 98 79 150 74 73 100 
            148 82 100 148 82 21 13 3 87 97 
            3 87 97 12 11 7 92 96 7 92 
            96 13 11 4 95 88 4 95 88 12 
            32 60 65 115 60 65 115 36 32 65 
            58 115 65 58 115 36 35 61 64 114 
            35 64 59 114 64 59 114 33 8 12 
            95 115 13 96 114 8 13 91 114 96 
            13 7 91 96 13 2 114 91 13 114 
            97 8 93 114 97 13 3 93 97 13 
            2 114 93 13 93 97 18 94 90 95 
            89 16 89 115 95 12 4 89 95 12 
            1 115 89 12 12 97 115 8 12 94 
            115 97 12 3 94 97 12 1 115 94 
            59 35 2 49 2 35 61 49 1 36 
            58 50 60 36 1 50 94 1 115 58 
            1 115 58 36 89 60 115 1 60 115 
            1 36 93 59 114 2 59 114 2 35 
            91 2 114 61 2 114 61 35 11 118 
            96 8 8 28 120 95 8 120 32 95 
            8 115 95 32 28 119 96 8 119 33 
            96 8 114 96 33 8 118 28 96 8 
            16 95 89 60 95 89 60 115 16 95 
            60 32 95 60 32 115 118 66 28 117 
            13 87 6 116 87 6 116 12 11 6 
            116 92 6 116 92 13 11 6 88 116 
            6 88 116 12 48 131 61 64 45 152 
            64 59 47 154 65 60 151 65 58 43 
            25 53 122 145 102 122 25 72 122 25 
            72 53 142 25 55 123 55 123 25 72 
            123 25 72 102 124 31 47 39 124 57 
            47 31 106 47 124 71 47 124 71 57 
            146 20 52 125 52 125 20 71 125 20 
            71 106 126 30 45 41 126 54 45 30 
            108 45 126 70 45 126 70 54 42 127 
            31 43 31 127 56 43 56 43 127 70 
            43 127 70 108 155 64 10 131 144 29 
            37 132 29 158 132 144 17 132 66 158 
            128 66 17 132 144 40 29 133 158 133 
            144 29 133 66 158 17 17 66 128 133 
            134 15 70 121 30 141 134 55 15 134 
            55 72 70 15 134 54 141 134 54 30 
            135 70 15 121 71 15 135 57 138 135 
            57 31 31 138 135 56 15 135 56 70 
            107 15 57 138 15 135 57 138 138 109 
            15 56 138 15 135 56 139 31 124 39 
            139 57 124 31 42 140 31 127 31 140 
            56 127 141 101 15 55 141 15 134 55 
            109 15 54 141 15 134 54 141 123 30 
            142 38 30 142 55 123 143 30 126 41 
            143 54 126 30 144 158 132 17 158 133 
            17 144 37 122 29 145 145 53 122 29 
            125 29 146 40 29 146 52 125 29 157 
            28 52 157 28 53 29 29 153 157 52 
            153 157 53 29 71 120 16 32 120 16 
            32 95 70 121 32 18 70 121 18 33 
            8 11 95 116 11 95 116 88 8 95 
            12 116 95 12 116 88 92 11 96 116 
            11 96 116 8 92 96 13 116 96 13 
            116 8 8 13 116 97 13 116 97 87 
            8 116 12 97 116 12 97 87 31 74 
            138 140 74 138 140 109 31 138 56 140 
            138 56 140 109 109 75 141 143 75 141 
            143 30 109 141 54 143 141 54 143 30 
            107 73 146 153 73 146 153 29 107 146 
            52 153 146 52 153 29 107 74 138 139 
            74 138 139 31 107 138 57 139 138 57 
            139 31 29 73 145 153 73 145 153 101 
            29 145 53 153 145 53 153 101 30 75 
            141 142 75 141 142 101 30 141 55 142 
            141 55 142 101 60 65 36 154 65 36 
            154 129 60 36 50 154 36 50 154 129 
            129 65 36 151 65 36 151 58 129 36 
            50 151 36 50 151 58 130 64 35 131 
            64 35 131 61 130 35 49 131 35 49 
            131 61 59 64 35 152 64 35 152 130 
            59 35 49 152 35 49 152 130 30 41 
            99 155 41 99 155 85 30 99 38 155 
            99 38 155 85 31 39 98 156 39 98 
            156 84 31 98 42 156 98 42 156 84 
            29 40 144 100 40 144 100 83 29 144 
            37 100 144 37 100 83 82 73 100 146 
            73 100 146 29 82 100 40 146 100 40 
            146 29 31 74 98 139 74 98 139 80 
            31 98 39 139 98 39 139 80 79 74 
            98 140 74 98 140 31 79 98 42 140 
            98 42 140 31 30 75 99 143 75 99 
            143 78 30 99 41 143 99 41 143 78 
            29 73 100 145 73 100 145 77 29 100 
            37 145 100 37 145 77 76 75 99 142 
            75 99 142 30 76 99 38 142 99 38 
            142 30 75 101 142 103 101 142 103 25 
            75 142 76 103 142 76 103 25 19 143 
            78 105 143 78 105 75 19 143 105 109 
            143 105 109 75 75 101 112 141 101 112 
            141 15 75 112 109 141 112 109 141 15 
            74 140 79 105 140 79 105 19 74 140 
            105 109 140 105 109 19 20 139 80 104 
            139 80 104 74 20 139 104 107 139 104 
            107 74 74 109 112 138 109 112 138 15 
            74 112 107 138 112 107 138 15 25 101 
            145 103 101 145 103 73 25 145 77 103 
            145 77 103 73 15 107 153 112 107 153 
            112 73 15 153 101 112 153 101 112 73 
            73 146 82 104 146 82 104 20 73 146 
            104 107 146 104 107 20 16 117 71 44 
            42 79 140 127 79 140 127 19 19 78 
            143 126 78 143 126 41 40 82 146 125 
            82 146 125 20 20 80 139 124 80 139 
            124 39 38 76 142 123 76 142 123 25 
            25 77 145 122 77 145 122 37 28 95 
            117 120 95 117 120 16 28 71 120 117 
            71 120 117 16 37 83 144 132 83 144 
            132 17 17 83 144 133 83 144 133 40 
            62 63 66 118 63 66 118 117 32 8 
            18 121 8 33 18 121 63 5 118 62 
            97 8 114 18 8 114 18 33 114 59 
            18 33 32 8 115 18 8 115 18 97 
            32 115 58 18 58 115 94 18 115 94 
            18 97 59 18 93 114 18 93 114 97 
            84 42 156 14 42 156 14 151 85 10 
            155 41 10 155 41 152 84 14 156 39 
            14 156 39 154 131 10 155 38 10 155 
            38 85 117 28 158 66 117 158 44 66 
            154 39 47 65 39 47 65 31 154 39 
            65 156 39 65 156 31 152 41 45 64 
            41 45 64 30 152 41 64 155 41 64 
            155 30 31 42 43 65 42 43 65 151 
            31 42 65 156 42 65 156 151 30 38 
            48 64 38 48 64 131 30 38 64 155 
            38 64 155 131 128 62 66 132 62 66 
            132 46 149 22 26 75 22 26 75 105 
            149 26 78 75 26 78 75 105 150 79 
            26 74 79 26 74 105 150 26 22 74 
            26 22 74 105 104 22 27 73 22 27 
            73 148 104 27 82 73 27 82 73 148 
            121 157 120 28 157 120 28 71 121 32 
            120 135 32 120 135 71 72 157 119 28 
            157 119 28 121 72 33 119 134 33 119 
            134 121 27 148 81 111 148 81 111 69 
            26 150 81 110 150 81 110 68 67 149 
            81 110 149 81 110 26 63 44 117 90 
            44 117 90 16 117 95 90 16 46 118 
            86 62 96 118 11 86 118 8 11 117 
            8 11 117 95 90 117 11 95 118 28 
            8 117 28 8 117 95 118 11 5 117 
            11 5 117 90 118 5 63 117 5 63 
            117 90 11 118 5 86 118 5 86 62 
            72 134 119 157 134 119 157 121 121 135 
            120 157 135 120 157 71 96 9 118 86 
            46 72 159 53 72 159 53 28 159 46 
            53 158 159 53 28 158 22 160 34 103 
            160 34 103 76 22 160 103 75 160 103 
            75 76 77 34 103 161 34 103 161 22 
            77 103 73 161 103 73 161 22 22 150 
            74 162 118 66 46 159 66 46 159 158 
            118 66 159 28 66 159 28 158 134 72 
            15 157 134 15 121 157 135 121 15 157 
            135 15 71 157 46 118 9 86 96 33 
            119 9 33 119 9 72 96 119 118 9 
            96 28 118 119 52 28 29 158 52 29 
            44 158 72 46 159 9 46 159 9 118 
            72 159 119 9 159 119 9 118 72 28 
            119 159 28 119 159 118 53 46 29 158 
            53 29 28 158 71 15 52 157 71 52 
            28 157 15 53 157 72 53 28 157 72 
            96 86 91 9 137 161 34 77 148 73 
            161 100 73 161 100 77 148 81 69 161 
            81 69 161 34 148 22 81 161 22 81 
            161 34 148 137 161 69 137 161 69 34 
            147 162 27 80 150 74 162 98 74 162 
            98 80 150 81 68 162 81 68 162 27 
            150 22 81 162 22 81 162 27 150 147 
            162 68 147 162 68 27 76 136 160 34 
            76 75 160 99 75 160 99 149 149 67 
            81 160 67 81 160 34 149 22 160 81 
            22 160 81 34 149 136 67 160 136 67 
            160 34 44 29 133 158 44 133 66 158 
            29 132 158 46 132 66 158 46 33 9 
            61 48 114 33 61 64 33 61 64 48 
            136 76 160 24 76 160 24 99 136 160 
            149 24 160 149 24 99 147 150 162 23 
            150 162 23 98 147 162 80 23 162 80 
            23 98 137 148 161 21 148 161 21 100 
            137 161 77 21 161 77 21 100 114 33 
            96 61 33 96 61 9 114 96 91 61 
            96 91 61 9 71 117 28 52 117 28 
            52 158 71 117 52 44 117 52 44 158 
            66 62 128 63 62 128 63 51 128 133 
            66 63 133 66 63 44 
        </DataArray>
        <DataArray type="Int32" Name="offsets" format="ascii">
            
            4 8 12 16 20 24 28 32 36 40 
            44 48 52 56 60 64 68 72 76 80 
            84 88 92 96 100 104 108 112 116 120 
            124 128 132 136 140 144 148 152 156 160 
            164 168 172 176 180 184 188 192 196 200 
            204 208 212 216 220 224 228 232 236 240 
            244 248 252 256 260 264 268 272 276 280 